version 3
run General-0-20230512-20:12:56-163789
attr configname General
attr datetime 20230512-20:12:56
attr datetimef 20230512-201256
attr experiment General
attr inifile omnetpp.ini
attr iterationvars ""
attr iterationvarsd ""
attr iterationvarsf ""
attr measurement ""
attr network Network
attr processid 163789
attr repetition 0
attr replication #0
attr resultdir results
attr runnumber 0
attr seedset 0
config network Network
config sim-time-limit 200s
config Network.nodeTx.gen.generationInterval exponential(0.001)
config Network.nodeTx.gen.packetByteSize 12500
config Network.queue.bufferSize 200
config Network.queue1.bufferSize 200
config Network.nodeRx.traRx.bufferSize 200
config Network.nodeTx.traTx.bufferSize 2000000
config Network.queue.serviceTime 200
config Network.queue1.serviceTime 200
config Network.nodeTx.queue.serviceTime 200
config Network.nodeRx.queue.serviceTime 200

vector 0 Network.nodeTx.traTx "" ETV
0	2	0.000795874505	0
0	5	0.001694434893	0
0	8	0.002950365651	0
0	11	0.004809969863	0
0	14	0.005733192994	0
0	17	0.00768473833	0
0	20	0.00847193947	0
0	23	0.010350903524	0
0	26	0.010901952011	0
0	29	0.011878958437	0
0	32	0.012917117738	0
0	35	0.013402245902	0
0	38	0.013977765099	0
0	41	0.014330924238	0
0	44	0.01655444866	0
0	47	0.016612833329	0
0	50	0.019927745609	0
0	53	0.02024610175	0
0	56	0.020729703855	0
0	59	0.021379150203	0
0	62	0.022948046321	0
0	65	0.024620257521	0
0	68	0.025372931634	0
0	71	0.026026814201	0
0	74	0.026866247054	0
0	77	0.027365119063	0
0	80	0.029963373149	0
0	83	0.031771742413	0
0	86	0.031845427768	0
0	89	0.032257005764	0
0	92	0.03234816679	0
0	95	0.033392779298	0
0	98	0.033413204886	0
0	101	0.033872453023	0
0	104	0.035659940686	0
0	107	0.038810110615	0
0	110	0.040315894874	0
0	113	0.040467125728	0
0	116	0.042507439986	0
0	119	0.044548332202	0
0	122	0.048393554071	0
0	125	0.049035263244	0
0	128	0.050640502801	0
0	131	0.052254504876	0
0	134	0.052873434336	0
0	137	0.053608398757	0
0	140	0.055124934731	0
0	143	0.056260873673	0
0	146	0.056386748082	0
0	149	0.057661975784	0
0	152	0.058683407658	0
0	155	0.059555728853	0
0	158	0.059710458534	0
0	161	0.060481293192	0
0	164	0.06337571367	0
0	167	0.06479707835	0
0	170	0.065534905642	0
0	173	0.065646851803	0
0	176	0.066182417523	0
0	179	0.066824112225	0
0	182	0.067131392577	0
0	185	0.067337595859	0
0	188	0.068825850685	0
0	191	0.07016114087	0
0	194	0.070770223293	0
0	197	0.071014271784	0
0	200	0.07185460649	0
0	203	0.071999884517	0
0	206	0.072018853086	0
0	209	0.072410623897	0
0	212	0.073372004836	0
0	215	0.073534141325	0
0	218	0.074481138002	0
0	221	0.074732579934	0
0	224	0.075692127911	0
0	227	0.07618068496	0
0	230	0.079058599981	0

