version 3
run General-0-20230614-18:05:51-10438
attr configname General
attr datetime 20230614-18:05:51
attr datetimef 20230614-180551
attr experiment General
attr inifile omnetpp.ini
attr iterationvars ""
attr iterationvarsd ""
attr iterationvarsf ""
attr measurement ""
attr network Network
attr processid 10438
attr repetition 0
attr replication #0
attr resultdir results
attr runnumber 0
attr seedset 0
config network Network
config sim-time-limit 200s
config Network.node[0].app.interArrivalTime exponential(1)
config Network.node[0].app.packetByteSize 125000
config Network.node[0].app.destination 5
config Network.node[2].app.interArrivalTime exponential(1)
config Network.node[2].app.packetByteSize 125000
config Network.node[2].app.destination 5

vector 0 Network.node[0].lnk[0] "Buffer Size" ETV
vector 1 Network.node[1].lnk[0] "Buffer Size" ETV
vector 2 Network.node[2].lnk[0] "Buffer Size" ETV
vector 3 Network.node[3].lnk[0] "Buffer Size" ETV
vector 4 Network.node[4].lnk[0] "Buffer Size" ETV
vector 5 Network.node[5].lnk[0] "Buffer Size" ETV
vector 6 Network.node[6].lnk[0] "Buffer Size" ETV
vector 7 Network.node[7].lnk[0] "Buffer Size" ETV
vector 8 Network.node[0].net Lnk_Selected ETV
vector 9 Network.node[2].net Lnk_Selected ETV
vector 10 Network.node[2].lnk[1] "Buffer Size" ETV
vector 11 Network.node[7].net Lnk_Selected ETV
vector 12 Network.node[3].net Lnk_Selected ETV
vector 13 Network.node[3].lnk[1] "Buffer Size" ETV
vector 14 Network.node[6].net Lnk_Selected ETV
vector 15 Network.node[4].net Lnk_Selected ETV
vector 16 Network.node[4].lnk[1] "Buffer Size" ETV
vector 17 Network.node[5].net Hops ETV
vector 18 Network.node[5].app Delay ETV
0	1	0	1
0	9	0	0
0	42	0.0001	1
0	50	0.0001	0
0	83	0.0002	1
0	91	0.0002	0
0	124	0.0003	1
0	132	0.0003	0
0	165	0.0004	1
0	173	0.0004	0
0	206	0.0005	1
0	214	0.0005	0
0	247	0.0006	1
0	255	0.0006	0
0	288	0.0007	1
0	296	0.0007	0
0	323	0.898560388484	1
0	324	0.898560388484	0
0	327	1.821783519955	1
0	332	1.898560388484	0
0	357	3.773328855839	1
0	358	3.773328855839	0
0	380	4.324377342509	1
0	385	4.773328855839	0
0	405	5.301383768902	1
0	415	5.773328855839	0
0	427	5.786511932624	1
0	437	6.139671071762	2
0	440	6.198055740855	3
0	451	6.773328855839	2
0	479	7.773328855839	1
0	509	8.773328855839	0
0	533	9.512968020783	1
0	538	9.773328855839	0
0	581	11.081864138406	1
0	582	11.081864138406	0
0	611	11.834538251719	1
0	612	12.081864138406	0
0	639	12.673971104619	1
0	644	13.081864138406	0
0	698	14.482340368894	1
0	699	14.482340368894	0
0	702	14.556025724359	1
0	705	14.967603720602	2
0	708	15.058764746726	3
0	738	15.482340368894	2
0	752	16.103377255034	3
0	767	16.482340368894	2
0	791	17.482340368894	1
0	822	18.482340368894	0
0	844	19.25354718371	1
0	859	19.482340368894	0
0	906	21.294439399622	1
0	907	21.294439399622	0
0	933	21.9361485723	1
0	934	22.294439399622	0
0	978	23.541388129362	1
0	979	23.541388129362	0
0	1004	25.155390204255	1
0	1005	25.155390204255	0
0	1020	25.890354625445	1
0	1026	26.155390204255	0
0	1037	27.026293567155	1
0	1050	27.152167976593	2
0	1051	27.155390204255	1
0	1074	28.155390204255	0
0	1099	28.427395678817	1
0	1102	28.582125359317	2
0	1110	29.155390204255	1
0	1136	29.352960017784	2
0	1137	30.155390204255	1
0	1167	30.774324697878	2
0	1168	31.155390204255	1
0	1193	31.512151989634	2
0	1196	31.624098150267	3
0	1201	32.155390204255	2
0	1217	32.159663870495	3
0	1224	32.466944222648	4
0	1230	32.673147504678	5
0	1236	33.155390204255	4
0	1262	34.008437689302	5
0	1267	34.155390204255	4
0	1286	34.617520112485	5
0	1289	34.762798139777	6
0	1292	34.781766708978	7
0	1307	35.155390204255	6
0	1323	35.173537519655	7
0	1346	36.134918458721	8
0	1347	36.155390204255	7
0	1366	36.386360390796	8
0	1369	36.874917440104	9
0	1384	37.155390204255	8
0	1415	38.155390204255	7
0	1443	39.155390204255	6
0	1462	39.752832461382	7
0	1477	40.155390204255	6
0	1493	40.3505785382	7
0	1499	40.796097033251	8
0	1514	41.155390204255	7
0	1530	41.370629439992	8
0	1548	42.155390204255	7
0	1585	43.155390204255	6
0	1601	43.696980501686	7
0	1616	44.155390204255	6
0	1632	44.795892969237	7
0	1647	45.155390204255	6
0	1663	45.854727100725	7
0	1678	46.155390204255	6
0	1704	46.965324546412	7
0	1716	47.10335323484	8
0	1717	47.155390204255	7
0	1746	48.155390204255	6
0	1762	48.492395924631	7
0	1778	48.944497984856	8
0	1785	49.155390204255	7
0	1818	49.788925778384	8
0	1819	50.155390204255	7
0	1850	51.155390204255	6
0	1878	52.155390204255	5
0	1906	53.155390204255	4
0	1940	54.155390204255	3
0	1956	54.24342262456	4
0	1959	54.477724143336	5
0	1977	55.155390204255	4
0	1996	55.485743388756	5
0	2011	56.155390204255	4
0	2041	56.54448610385	5
0	2042	57.155390204255	4
0	2058	57.416401957476	5
0	2075	57.708482490743	6
0	2076	58.155390204255	5
0	2092	58.243547167826	6
0	2109	58.871488748817	7
0	2110	59.155390204255	6
0	2126	59.51526975042	7
0	2143	59.795546758899	8
0	2144	60.155390204255	7
0	2178	60.77241083297	8
0	2185	61.155390204255	7
0	2201	61.184912062892	8
0	2219	62.155390204255	7
0	2235	62.252984260042	8
0	2238	62.401696529294	9
0	2259	63.155390204255	8
0	2289	63.908331862567	9
0	2290	64.155390204255	8
0	2306	64.368345820307	9
0	2321	65.155390204255	8
0	2337	65.454615201185	9
0	2361	66.155390204255	8
0	2392	67.155390204255	7
0	2408	67.174946858902	8
0	2423	68.155390204255	7
0	2439	68.294761224656	8
0	2442	68.395795999965	9
0	2460	69.155390204255	8
0	2488	70.155390204255	7
0	2516	71.155390204255	6
0	2546	71.969384372309	7
0	2547	72.155390204255	6
0	2577	73.155390204255	5
0	2605	74.074705673101	6
0	2608	74.132032599525	7
0	2609	74.155390204255	6
0	2635	75.060511096426	7
0	2636	75.155390204255	6
0	2666	75.660457983067	7
0	2667	76.155390204255	6
0	2692	77.004703255219	7
0	2695	77.024893383365	8
0	2698	77.064869682423	9
0	2699	77.155390204255	8
0	2723	77.64774807129	9
0	2730	78.155390204255	8
0	2755	79.155390204255	7
0	2785	80.155390204255	6
0	2819	81.155390204255	5
0	2849	81.539318194135	6
0	2852	82.074202569892	7
0	2853	82.155390204255	6
0	2884	83.155390204255	5
0	2918	84.155390204255	4
0	2948	84.578114352977	5
0	2952	85.155390204255	4
0	2982	85.410957869043	5
0	2989	86.155390204255	4
0	3020	87.155390204255	3
0	3053	87.41419839155	4
0	3056	87.512848699968	5
0	3057	88.155390204255	4
0	3085	89.155390204255	3
0	3118	90.053153207927	4
0	3121	90.139923690267	5
0	3122	90.155390204255	4
0	3156	91.155390204255	3
0	3190	92.155390204255	2
0	3223	92.789179618943	3
0	3226	92.930510332504	4
0	3227	93.155390204255	3
0	3257	93.972290986683	4
0	3258	94.155390204255	3
0	3289	95.155390204255	2
0	3305	95.232224796792	3
0	3322	95.573878963818	4
0	3325	95.88139668758	5
0	3331	96.083747126147	6
0	3332	96.155390204255	5
0	3365	96.966876168106	6
0	3368	96.987188626902	7
0	3369	97.155390204255	6
0	3385	97.167440878887	7
0	3412	98.155390204255	6
0	3442	98.9331819513	7
0	3446	99.155390204255	6
0	3479	99.776264983448	7
0	3480	100.155390204255	6
0	3516	101.105022857198	7
0	3517	101.155390204255	6
0	3547	101.672927010678	7
0	3550	101.958947983186	8
0	3551	102.155390204255	7
0	3579	103.155390204255	6
0	3595	103.36997239248	7
0	3610	104.155390204255	6
0	3626	104.228365360309	7
0	3646	104.732709166897	8
0	3647	105.155390204255	7
0	3681	106.155390204255	6
0	3711	106.996442742758	7
0	3715	107.155390204255	6
0	3731	107.248862735649	7
0	3746	108.155390204255	6
0	3774	109.155390204255	5
0	3805	110.155390204255	4
0	3821	110.301144392533	5
0	3841	110.893768419985	6
0	3845	111.155390204255	5
0	3873	112.155390204255	4
1	2	0	1
1	10	0	0
1	43	0.0001	1
1	51	0.0001	0
1	84	0.0002	1
1	92	0.0002	0
1	125	0.0003	1
1	133	0.0003	0
1	166	0.0004	1
1	174	0.0004	0
1	207	0.0005	1
1	215	0.0005	0
1	248	0.0006	1
1	256	0.0006	0
1	281	0.0007	1
1	289	0.0007	0
2	3	0	1
2	11	0	0
2	44	0.0001	1
2	52	0.0001	0
2	85	0.0002	1
2	93	0.0002	0
2	126	0.0003	1
2	134	0.0003	0
2	167	0.0004	1
2	175	0.0004	0
2	208	0.0005	1
2	216	0.0005	0
2	241	0.0006	1
2	249	0.0006	0
2	282	0.0007	1
2	290	0.0007	0
3	4	0	1
3	12	0	0
3	45	0.0001	1
3	53	0.0001	0
3	86	0.0002	1
3	94	0.0002	0
3	127	0.0003	1
3	135	0.0003	0
3	168	0.0004	1
3	176	0.0004	0
3	201	0.0005	1
3	209	0.0005	0
3	242	0.0006	1
3	250	0.0006	0
3	283	0.0007	1
3	291	0.0007	0
4	5	0	1
4	13	0	0
4	46	0.0001	1
4	54	0.0001	0
4	87	0.0002	1
4	95	0.0002	0
4	128	0.0003	1
4	136	0.0003	0
4	161	0.0004	1
4	169	0.0004	0
4	202	0.0005	1
4	210	0.0005	0
4	243	0.0006	1
4	251	0.0006	0
4	284	0.0007	1
4	292	0.0007	0
5	6	0	1
5	14	0	0
5	47	0.0001	1
5	55	0.0001	0
5	88	0.0002	1
5	96	0.0002	0
5	121	0.0003	1
5	129	0.0003	0
5	162	0.0004	1
5	170	0.0004	0
5	203	0.0005	1
5	211	0.0005	0
5	244	0.0006	1
5	252	0.0006	0
5	285	0.0007	1
5	293	0.0007	0
6	7	0	1
6	15	0	0
6	48	0.0001	1
6	56	0.0001	0
6	81	0.0002	1
6	89	0.0002	0
6	122	0.0003	1
6	130	0.0003	0
6	163	0.0004	1
6	171	0.0004	0
6	204	0.0005	1
6	212	0.0005	0
6	245	0.0006	1
6	253	0.0006	0
6	286	0.0007	1
6	294	0.0007	0
6	353	2.898760388484	1
6	354	2.898760388484	0
6	373	3.898760388484	1
6	374	3.898760388484	0
6	423	5.773528855839	1
6	424	5.773528855839	0
6	460	6.773528855839	1
6	461	6.773528855839	0
6	488	7.773528855839	1
6	489	7.773528855839	0
6	518	8.773528855839	1
6	519	8.773528855839	0
6	547	9.773528855839	1
6	548	9.773528855839	0
6	574	10.773528855839	1
6	575	10.773528855839	0
6	604	11.773528855839	1
6	605	11.773528855839	0
6	652	13.082064138406	1
6	653	13.082064138406	0
6	677	14.082064138406	1
6	678	14.082064138406	0
6	713	15.082064138406	1
6	714	15.082064138406	0
6	775	16.482540368894	1
6	776	16.482540368894	0
6	800	17.482540368894	1
6	801	17.482540368894	0
6	831	18.482540368894	1
6	832	18.482540368894	0
6	868	19.482540368894	1
6	869	19.482540368894	0
6	896	20.482540368894	1
6	897	20.482540368894	0
6	926	21.482540368894	1
6	927	21.482540368894	0
6	965	23.294639399622	1
6	966	23.294639399622	0
6	984	24.294639399622	1
6	985	24.294639399622	0
6	1013	25.541588129362	1
6	1014	25.541588129362	0
6	1059	27.155590204255	1
6	1060	27.155590204255	0
6	1083	28.155590204255	1
6	1084	28.155590204255	0
6	1119	29.155590204255	1
6	1120	29.155590204255	0
6	1146	30.155590204255	1
6	1147	30.155590204255	0
6	1177	31.155590204255	1
6	1178	31.155590204255	0
6	1210	32.155590204255	1
6	1211	32.155590204255	0
6	1245	33.155590204255	1
6	1246	33.155590204255	0
6	1276	34.155590204255	1
6	1277	34.155590204255	0
6	1316	35.155590204255	1
6	1317	35.155590204255	0
6	1356	36.155590204255	1
6	1357	36.155590204255	0
6	1393	37.155590204255	1
6	1394	37.155590204255	0
6	1424	38.155590204255	1
6	1425	38.155590204255	0
6	1452	39.155590204255	1
6	1453	39.155590204255	0
6	1486	40.155590204255	1
6	1487	40.155590204255	0
6	1523	41.155590204255	1
6	1524	41.155590204255	0
6	1557	42.155590204255	1
6	1558	42.155590204255	0
6	1594	43.155590204255	1
6	1595	43.155590204255	0
6	1625	44.155590204255	1
6	1626	44.155590204255	0
6	1656	45.155590204255	1
6	1657	45.155590204255	0
6	1687	46.155590204255	1
6	1688	46.155590204255	0
6	1726	47.155590204255	1
6	1727	47.155590204255	0
6	1755	48.155590204255	1
6	1756	48.155590204255	0
6	1794	49.155590204255	1
6	1795	49.155590204255	0
6	1828	50.155590204255	1
6	1829	50.155590204255	0
6	1859	51.155590204255	1
6	1860	51.155590204255	0
6	1887	52.155590204255	1
6	1888	52.155590204255	0
6	1915	53.155590204255	1
6	1916	53.155590204255	0
6	1949	54.155590204255	1
6	1950	54.155590204255	0
6	1986	55.155590204255	1
6	1987	55.155590204255	0
6	2020	56.155590204255	1
6	2021	56.155590204255	0
6	2051	57.155590204255	1
6	2052	57.155590204255	0
6	2085	58.155590204255	1
6	2086	58.155590204255	0
6	2119	59.155590204255	1
6	2120	59.155590204255	0
6	2153	60.155590204255	1
6	2154	60.155590204255	0
6	2194	61.155590204255	1
6	2195	61.155590204255	0
6	2228	62.155590204255	1
6	2229	62.155590204255	0
6	2268	63.155590204255	1
6	2269	63.155590204255	0
6	2299	64.155590204255	1
6	2300	64.155590204255	0
6	2330	65.155590204255	1
6	2331	65.155590204255	0
6	2370	66.155590204255	1
6	2371	66.155590204255	0
6	2401	67.155590204255	1
6	2402	67.155590204255	0
6	2432	68.155590204255	1
6	2433	68.155590204255	0
6	2469	69.155590204255	1
6	2470	69.155590204255	0
6	2497	70.155590204255	1
6	2498	70.155590204255	0
6	2525	71.155590204255	1
6	2526	71.155590204255	0
6	2556	72.155590204255	1
6	2557	72.155590204255	0
6	2586	73.155590204255	1
6	2587	73.155590204255	0
6	2618	74.155590204255	1
6	2619	74.155590204255	0
6	2645	75.155590204255	1
6	2646	75.155590204255	0
6	2676	76.155590204255	1
6	2677	76.155590204255	0
6	2708	77.155590204255	1
6	2709	77.155590204255	0
6	2739	78.155590204255	1
6	2740	78.155590204255	0
6	2764	79.155590204255	1
6	2765	79.155590204255	0
6	2794	80.155590204255	1
6	2795	80.155590204255	0
6	2828	81.155590204255	1
6	2829	81.155590204255	0
6	2862	82.155590204255	1
6	2863	82.155590204255	0
6	2893	83.155590204255	1
6	2894	83.155590204255	0
6	2927	84.155590204255	1
6	2928	84.155590204255	0
6	2961	85.155590204255	1
6	2962	85.155590204255	0
6	2998	86.155590204255	1
6	2999	86.155590204255	0
6	3029	87.155590204255	1
6	3030	87.155590204255	0
6	3066	88.155590204255	1
6	3067	88.155590204255	0
6	3094	89.155590204255	1
6	3095	89.155590204255	0
6	3131	90.155590204255	1
6	3132	90.155590204255	0
6	3165	91.155590204255	1
6	3166	91.155590204255	0
6	3199	92.155590204255	1
6	3200	92.155590204255	0
6	3236	93.155590204255	1
6	3237	93.155590204255	0
6	3267	94.155590204255	1
6	3268	94.155590204255	0
6	3298	95.155590204255	1
6	3299	95.155590204255	0
6	3341	96.155590204255	1
6	3342	96.155590204255	0
6	3378	97.155590204255	1
6	3379	97.155590204255	0
6	3421	98.155590204255	1
6	3422	98.155590204255	0
6	3455	99.155590204255	1
6	3456	99.155590204255	0
6	3489	100.155590204255	1
6	3490	100.155590204255	0
6	3526	101.155590204255	1
6	3527	101.155590204255	0
6	3560	102.155590204255	1
6	3561	102.155590204255	0
6	3588	103.155590204255	1
6	3589	103.155590204255	0
6	3619	104.155590204255	1
6	3620	104.155590204255	0
6	3656	105.155590204255	1
6	3657	105.155590204255	0
6	3690	106.155590204255	1
6	3691	106.155590204255	0
6	3724	107.155590204255	1
6	3725	107.155590204255	0
6	3755	108.155590204255	1
6	3756	108.155590204255	0
6	3783	109.155590204255	1
6	3784	109.155590204255	0
6	3814	110.155590204255	1
6	3815	110.155590204255	0
6	3854	111.155590204255	1
6	3855	111.155590204255	0
6	3882	112.155590204255	1
6	3883	112.155590204255	0
7	8	0	1
7	16	0	0
7	41	0.0001	1
7	49	0.0001	0
7	82	0.0002	1
7	90	0.0002	0
7	123	0.0003	1
7	131	0.0003	0
7	164	0.0004	1
7	172	0.0004	0
7	205	0.0005	1
7	213	0.0005	0
7	246	0.0006	1
7	254	0.0006	0
7	287	0.0007	1
7	295	0.0007	0
7	335	1.898660388484	1
7	336	1.898660388484	0
7	349	2.898660388484	1
7	350	2.898660388484	0
7	388	4.773428855839	1
7	389	4.773428855839	0
7	419	5.773428855839	1
7	420	5.773428855839	0
7	455	6.773428855839	1
7	456	6.773428855839	0
7	483	7.773428855839	1
7	484	7.773428855839	0
7	513	8.773428855839	1
7	514	8.773428855839	0
7	542	9.773428855839	1
7	543	9.773428855839	0
7	569	10.773428855839	1
7	570	10.773428855839	0
7	615	12.081964138406	1
7	616	12.081964138406	0
7	648	13.081964138406	1
7	649	13.081964138406	0
7	672	14.081964138406	1
7	673	14.081964138406	0
7	741	15.482440368894	1
7	742	15.482440368894	0
7	771	16.482440368894	1
7	772	16.482440368894	0
7	795	17.482440368894	1
7	796	17.482440368894	0
7	826	18.482440368894	1
7	827	18.482440368894	0
7	863	19.482440368894	1
7	864	19.482440368894	0
7	891	20.482440368894	1
7	892	20.482440368894	0
7	937	22.294539399622	1
7	938	22.294539399622	0
7	961	23.294539399622	1
7	962	23.294539399622	0
7	996	24.541488129362	1
7	997	24.541488129362	0
7	1029	26.155490204255	1
7	1030	26.155490204255	0
7	1055	27.155490204255	1
7	1056	27.155490204255	0
7	1078	28.155490204255	1
7	1079	28.155490204255	0
7	1114	29.155490204255	1
7	1115	29.155490204255	0
7	1141	30.155490204255	1
7	1142	30.155490204255	0
7	1172	31.155490204255	1
7	1173	31.155490204255	0
7	1205	32.155490204255	1
7	1206	32.155490204255	0
7	1240	33.155490204255	1
7	1241	33.155490204255	0
7	1271	34.155490204255	1
7	1272	34.155490204255	0
7	1311	35.155490204255	1
7	1312	35.155490204255	0
7	1351	36.155490204255	1
7	1352	36.155490204255	0
7	1388	37.155490204255	1
7	1389	37.155490204255	0
7	1419	38.155490204255	1
7	1420	38.155490204255	0
7	1447	39.155490204255	1
7	1448	39.155490204255	0
7	1481	40.155490204255	1
7	1482	40.155490204255	0
7	1518	41.155490204255	1
7	1519	41.155490204255	0
7	1552	42.155490204255	1
7	1553	42.155490204255	0
7	1589	43.155490204255	1
7	1590	43.155490204255	0
7	1620	44.155490204255	1
7	1621	44.155490204255	0
7	1651	45.155490204255	1
7	1652	45.155490204255	0
7	1682	46.155490204255	1
7	1683	46.155490204255	0
7	1721	47.155490204255	1
7	1722	47.155490204255	0
7	1750	48.155490204255	1
7	1751	48.155490204255	0
7	1789	49.155490204255	1
7	1790	49.155490204255	0
7	1823	50.155490204255	1
7	1824	50.155490204255	0
7	1854	51.155490204255	1
7	1855	51.155490204255	0
7	1882	52.155490204255	1
7	1883	52.155490204255	0
7	1910	53.155490204255	1
7	1911	53.155490204255	0
7	1944	54.155490204255	1
7	1945	54.155490204255	0
7	1981	55.155490204255	1
7	1982	55.155490204255	0
7	2015	56.155490204255	1
7	2016	56.155490204255	0
7	2046	57.155490204255	1
7	2047	57.155490204255	0
7	2080	58.155490204255	1
7	2081	58.155490204255	0
7	2114	59.155490204255	1
7	2115	59.155490204255	0
7	2148	60.155490204255	1
7	2149	60.155490204255	0
7	2189	61.155490204255	1
7	2190	61.155490204255	0
7	2223	62.155490204255	1
7	2224	62.155490204255	0
7	2263	63.155490204255	1
7	2264	63.155490204255	0
7	2294	64.155490204255	1
7	2295	64.155490204255	0
7	2325	65.155490204255	1
7	2326	65.155490204255	0
7	2365	66.155490204255	1
7	2366	66.155490204255	0
7	2396	67.155490204255	1
7	2397	67.155490204255	0
7	2427	68.155490204255	1
7	2428	68.155490204255	0
7	2464	69.155490204255	1
7	2465	69.155490204255	0
7	2492	70.155490204255	1
7	2493	70.155490204255	0
7	2520	71.155490204255	1
7	2521	71.155490204255	0
7	2551	72.155490204255	1
7	2552	72.155490204255	0
7	2581	73.155490204255	1
7	2582	73.155490204255	0
7	2613	74.155490204255	1
7	2614	74.155490204255	0
7	2640	75.155490204255	1
7	2641	75.155490204255	0
7	2671	76.155490204255	1
7	2672	76.155490204255	0
7	2703	77.155490204255	1
7	2704	77.155490204255	0
7	2734	78.155490204255	1
7	2735	78.155490204255	0
7	2759	79.155490204255	1
7	2760	79.155490204255	0
7	2789	80.155490204255	1
7	2790	80.155490204255	0
7	2823	81.155490204255	1
7	2824	81.155490204255	0
7	2857	82.155490204255	1
7	2858	82.155490204255	0
7	2888	83.155490204255	1
7	2889	83.155490204255	0
7	2922	84.155490204255	1
7	2923	84.155490204255	0
7	2956	85.155490204255	1
7	2957	85.155490204255	0
7	2993	86.155490204255	1
7	2994	86.155490204255	0
7	3024	87.155490204255	1
7	3025	87.155490204255	0
7	3061	88.155490204255	1
7	3062	88.155490204255	0
7	3089	89.155490204255	1
7	3090	89.155490204255	0
7	3126	90.155490204255	1
7	3127	90.155490204255	0
7	3160	91.155490204255	1
7	3161	91.155490204255	0
7	3194	92.155490204255	1
7	3195	92.155490204255	0
7	3231	93.155490204255	1
7	3232	93.155490204255	0
7	3262	94.155490204255	1
7	3263	94.155490204255	0
7	3293	95.155490204255	1
7	3294	95.155490204255	0
7	3336	96.155490204255	1
7	3337	96.155490204255	0
7	3373	97.155490204255	1
7	3374	97.155490204255	0
7	3416	98.155490204255	1
7	3417	98.155490204255	0
7	3450	99.155490204255	1
7	3451	99.155490204255	0
7	3484	100.155490204255	1
7	3485	100.155490204255	0
7	3521	101.155490204255	1
7	3522	101.155490204255	0
7	3555	102.155490204255	1
7	3556	102.155490204255	0
7	3583	103.155490204255	1
7	3584	103.155490204255	0
7	3614	104.155490204255	1
7	3615	104.155490204255	0
7	3651	105.155490204255	1
7	3652	105.155490204255	0
7	3685	106.155490204255	1
7	3686	106.155490204255	0
7	3719	107.155490204255	1
7	3720	107.155490204255	0
7	3750	108.155490204255	1
7	3751	108.155490204255	0
7	3778	109.155490204255	1
7	3779	109.155490204255	0
7	3809	110.155490204255	1
7	3810	110.155490204255	0
7	3849	111.155490204255	1
7	3850	111.155490204255	0
7	3877	112.155490204255	1
7	3878	112.155490204255	0
8	322	0.898560388484	0
8	326	1.821783519955	0
8	356	3.773328855839	0
8	379	4.324377342509	0
8	404	5.301383768902	0
8	426	5.786511932624	0
8	436	6.139671071762	0
8	439	6.198055740855	0
8	532	9.512968020783	0
8	580	11.081864138406	0
8	610	11.834538251719	0
8	638	12.673971104619	0
8	697	14.482340368894	0
8	701	14.556025724359	0
8	704	14.967603720602	0
8	707	15.058764746726	0
8	751	16.103377255034	0
8	843	19.25354718371	0
8	905	21.294439399622	0
8	932	21.9361485723	0
8	977	23.541388129362	0
8	1003	25.155390204255	0
8	1019	25.890354625445	0
8	1036	27.026293567155	0
8	1049	27.152167976593	0
8	1098	28.427395678817	0
8	1101	28.582125359317	0
8	1135	29.352960017784	0
8	1166	30.774324697878	0
8	1192	31.512151989634	0
8	1195	31.624098150267	0
8	1216	32.159663870495	0
8	1223	32.466944222648	0
8	1229	32.673147504678	0
8	1261	34.008437689302	0
8	1285	34.617520112485	0
8	1288	34.762798139777	0
8	1291	34.781766708978	0
8	1322	35.173537519655	0
8	1345	36.134918458721	0
8	1365	36.386360390796	0
8	1368	36.874917440104	0
8	1461	39.752832461382	0
8	1492	40.3505785382	0
8	1498	40.796097033251	0
8	1529	41.370629439992	0
8	1600	43.696980501686	0
8	1631	44.795892969237	0
8	1662	45.854727100725	0
8	1703	46.965324546412	0
8	1715	47.10335323484	0
8	1761	48.492395924631	0
8	1777	48.944497984856	0
8	1817	49.788925778384	0
8	1955	54.24342262456	0
8	1958	54.477724143336	0
8	1995	55.485743388756	0
8	2040	56.54448610385	0
8	2057	57.416401957476	0
8	2074	57.708482490743	0
8	2091	58.243547167826	0
8	2108	58.871488748817	0
8	2125	59.51526975042	0
8	2142	59.795546758899	0
8	2177	60.77241083297	0
8	2200	61.184912062892	0
8	2234	62.252984260042	0
8	2237	62.401696529294	0
8	2288	63.908331862567	0
8	2305	64.368345820307	0
8	2336	65.454615201185	0
8	2407	67.174946858902	0
8	2438	68.294761224656	0
8	2441	68.395795999965	0
8	2545	71.969384372309	0
8	2604	74.074705673101	0
8	2607	74.132032599525	0
8	2634	75.060511096426	0
8	2665	75.660457983067	0
8	2691	77.004703255219	0
8	2694	77.024893383365	0
8	2697	77.064869682423	0
8	2722	77.64774807129	0
8	2848	81.539318194135	0
8	2851	82.074202569892	0
8	2947	84.578114352977	0
8	2981	85.410957869043	0
8	3052	87.41419839155	0
8	3055	87.512848699968	0
8	3117	90.053153207927	0
8	3120	90.139923690267	0
8	3222	92.789179618943	0
8	3225	92.930510332504	0
8	3256	93.972290986683	0
8	3304	95.232224796792	0
8	3321	95.573878963818	0
8	3324	95.88139668758	0
8	3330	96.083747126147	0
8	3364	96.966876168106	0
8	3367	96.987188626902	0
8	3384	97.167440878887	0
8	3441	98.9331819513	0
8	3478	99.776264983448	0
8	3515	101.105022857198	0
8	3546	101.672927010678	0
8	3549	101.958947983186	0
8	3594	103.36997239248	0
8	3625	104.228365360309	0
8	3645	104.732709166897	0
8	3710	106.996442742758	0
8	3730	107.248862735649	0
8	3820	110.301144392533	0
8	3840	110.893768419985	0
9	329	1.859604212075	1
9	338	2.646805352057	1
9	382	4.52576940626	1
9	412	5.563928706924	1
9	433	6.139447903807	1
9	494	8.362972325843	1
9	507	8.681328466685	1
9	524	9.164930571633	1
9	553	9.814376919884	1
9	598	11.486588120209	1
9	618	12.14047068743	1
9	635	12.639342696446	1
9	719	15.237596782295	1
9	722	15.258022370694	1
9	744	15.717270507949	1
9	806	17.504758171388	1
9	837	19.010542430025	1
9	840	19.16177328369	1
9	902	21.202087541632	1
9	999	25.047309410774	1
9	1016	25.666238870401	1
9	1062	27.182774844391	1
9	1094	28.20420671874	1
9	1108	29.076527913782	1
9	1198	31.970948391769	1
9	1226	32.6126430938	1
9	1264	34.100897919552	1
9	1282	34.344946410289	1
9	1325	35.185281115901	1
9	1328	35.347417605347	1
9	1362	36.294414282522	1
9	1399	37.25396225989	1
9	1458	39.582875634104	1
9	1495	40.728014588804	1
9	1532	41.677509172301	1
9	1563	42.873616971758	1
9	1566	42.978178197533	1
9	1569	43.040293487999	1
9	1693	46.540507172454	1
9	1697	46.727933238472	1
9	1700	46.964139944555	1
9	1732	47.407543973176	1
9	1740	47.786505937459	1
9	1774	48.72256749723	1
9	1780	49.115680054534	1
9	1783	49.154863210947	1
9	1814	49.732187521754	1
9	1848	50.738058526921	1
9	1935	53.931005168975	1
9	1938	54.038640277131	1
9	1975	55.096466690483	1
9	1992	55.272380235909	1
9	2173	60.632480586152	1
9	2180	60.805608042298	1
9	2183	60.92256345209	1
9	2217	62.045731753623	1
9	2240	62.427287596997	1
9	2257	62.646168193504	1
9	2353	65.633358085356	1
9	2356	65.647022663787	1
9	2359	65.749167545312	1
9	2390	66.724269479468	1
9	2444	68.544088398752	1
9	2562	72.293119858336	1
9	2575	72.925456454732	1
9	2601	73.638040048065	1
9	2718	77.399967332569	1
9	2725	77.732377573533	1
9	2728	77.860434338844	1
9	2745	78.305853800764	1
9	2753	78.657029890145	1
9	2770	79.312676174509	1
9	2783	79.439064810934	1
9	2814	80.605938337483	1
9	2817	80.988639286345	1
9	2882	83.112876483347	1
9	2899	83.179173884829	1
9	2916	83.423569332911	1
9	2950	84.602758859976	1
9	2984	85.438856391946	1
9	2987	85.747271232044	1
9	3018	86.458519169261	1
9	3035	87.199278119708	1
9	3114	89.684860476685	1
9	3151	90.542756117759	1
9	3154	90.868096533288	1
9	3171	91.251656747387	1
9	3174	91.261057498051	1
9	3205	92.361903408142	1
9	3273	94.209231059144	1
9	3327	96.050513530631	1
9	3361	96.557713653888	1
9	3387	97.362511053689	1
9	3404	97.824241949733	1
9	3407	97.828948490225	1
9	3410	97.987289996456	1
9	3444	99.119924138428	1
9	3475	99.434645799283	1
9	3509	100.65115445272	1
9	3512	100.991501190955	1
9	3628	104.26664436867	1
9	3662	105.163235239456	1
9	3679	106.01245605102	1
9	3713	107.031114781039	1
9	3789	109.252621679513	1
9	3823	110.392229643046	1
9	3843	110.988609037376	1
10	330	1.859604212075	1
10	331	1.859604212075	0
10	339	2.646805352057	1
10	340	2.859604212075	0
10	383	4.52576940626	1
10	384	4.52576940626	0
10	413	5.563928706924	1
10	414	5.563928706924	0
10	434	6.139447903807	1
10	446	6.563928706924	0
10	495	8.362972325843	1
10	496	8.362972325843	0
10	508	8.681328466685	1
10	525	9.164930571633	2
10	526	9.362972325843	1
10	554	9.814376919884	2
10	555	10.362972325843	1
10	583	11.362972325843	0
10	599	11.486588120209	1
10	619	12.14047068743	2
10	620	12.362972325843	1
10	636	12.639342696446	2
10	654	13.362972325843	1
10	682	14.362972325843	0
10	720	15.237596782295	1
10	723	15.258022370694	2
10	724	15.362972325843	1
10	745	15.717270507949	2
10	753	16.362972325843	1
10	777	17.362972325843	0
10	807	17.504758171388	1
10	808	18.362972325843	0
10	838	19.010542430025	1
10	841	19.16177328369	2
10	845	19.362972325843	1
10	873	20.362972325843	0
10	903	21.202087541632	1
10	908	21.362972325843	0
10	1000	25.047309410774	1
10	1001	25.047309410774	0
10	1017	25.666238870401	1
10	1021	26.047309410774	0
10	1063	27.182774844391	1
10	1064	27.182774844391	0
10	1095	28.20420671874	1
10	1096	28.20420671874	0
10	1109	29.076527913782	1
10	1129	29.20420671874	0
10	1199	31.970948391769	1
10	1200	31.970948391769	0
10	1227	32.6126430938	1
10	1231	32.970948391769	0
10	1265	34.100897919552	1
10	1266	34.100897919552	0
10	1283	34.344946410289	1
10	1302	35.100897919552	0
10	1326	35.185281115901	1
10	1329	35.347417605347	2
10	1334	36.100897919552	1
10	1363	36.294414282522	2
10	1370	37.100897919552	1
10	1400	37.25396225989	2
10	1401	38.100897919552	1
10	1429	39.100897919552	0
10	1459	39.582875634104	1
10	1463	40.100897919552	0
10	1496	40.728014588804	1
10	1500	41.100897919552	0
10	1533	41.677509172301	1
10	1534	42.100897919552	0
10	1564	42.873616971758	1
10	1567	42.978178197533	2
10	1570	43.040293487999	3
10	1571	43.100897919552	2
10	1602	44.100897919552	1
10	1633	45.100897919552	0
10	1694	46.540507172454	1
10	1695	46.540507172454	0
10	1698	46.727933238472	1
10	1701	46.964139944555	2
10	1733	47.407543973176	3
10	1734	47.540507172454	2
10	1741	47.786505937459	3
10	1763	48.540507172454	2
10	1775	48.72256749723	3
10	1781	49.115680054534	4
10	1784	49.154863210947	5
10	1799	49.540507172454	4
10	1815	49.732187521754	5
10	1833	50.540507172454	4
10	1849	50.738058526921	5
10	1864	51.540507172454	4
10	1892	52.540507172454	3
10	1920	53.540507172454	2
10	1936	53.931005168975	3
10	1939	54.038640277131	4
10	1960	54.540507172454	3
10	1976	55.096466690483	4
10	1993	55.272380235909	5
10	1997	55.540507172454	4
10	2025	56.540507172454	3
10	2059	57.540507172454	2
10	2093	58.540507172454	1
10	2127	59.540507172454	0
10	2174	60.632480586152	1
10	2175	60.632480586152	0
10	2181	60.805608042298	1
10	2184	60.92256345209	2
10	2211	61.632480586152	1
10	2218	62.045731753623	2
10	2241	62.427287596997	3
10	2246	62.632480586152	2
10	2258	62.646168193504	3
10	2273	63.632480586152	2
10	2307	64.632480586152	1
10	2338	65.632480586152	0
10	2354	65.633358085356	1
10	2357	65.647022663787	2
10	2360	65.749167545312	3
10	2375	66.632480586152	2
10	2391	66.724269479468	3
10	2409	67.632480586152	2
10	2445	68.544088398752	3
10	2446	68.632480586152	2
10	2474	69.632480586152	1
10	2502	70.632480586152	0
10	2563	72.293119858336	1
10	2564	72.293119858336	0
10	2576	72.925456454732	1
10	2591	73.293119858336	0
10	2602	73.638040048065	1
10	2623	74.293119858336	0
10	2719	77.399967332569	1
10	2720	77.399967332569	0
10	2726	77.732377573533	1
10	2729	77.860434338844	2
10	2746	78.305853800764	3
10	2747	78.399967332569	2
10	2754	78.657029890145	3
10	2771	79.312676174509	4
10	2772	79.399967332569	3
10	2784	79.439064810934	4
10	2799	80.399967332569	3
10	2815	80.605938337483	4
10	2818	80.988639286345	5
10	2833	81.399967332569	4
10	2867	82.399967332569	3
10	2883	83.112876483347	4
10	2900	83.179173884829	5
10	2901	83.399967332569	4
10	2917	83.423569332911	5
10	2932	84.399967332569	4
10	2951	84.602758859976	5
10	2966	85.399967332569	4
10	2985	85.438856391946	5
10	2988	85.747271232044	6
10	3003	86.399967332569	5
10	3019	86.458519169261	6
10	3036	87.199278119708	7
10	3037	87.399967332569	6
10	3071	88.399967332569	5
10	3099	89.399967332569	4
10	3115	89.684860476685	5
10	3136	90.399967332569	4
10	3152	90.542756117759	5
10	3155	90.868096533288	6
10	3172	91.251656747387	7
10	3175	91.261057498051	8
10	3176	91.399967332569	7
10	3206	92.361903408142	8
10	3207	92.399967332569	7
10	3241	93.399967332569	6
10	3274	94.209231059144	7
10	3275	94.399967332569	6
10	3306	95.399967332569	5
10	3328	96.050513530631	6
10	3346	96.399967332569	5
10	3362	96.557713653888	6
10	3388	97.362511053689	7
10	3389	97.399967332569	6
10	3405	97.824241949733	7
10	3408	97.828948490225	8
10	3411	97.987289996456	9
10	3426	98.399967332569	8
10	3445	99.119924138428	9
10	3460	99.399967332569	8
10	3476	99.434645799283	9
10	3494	100.399967332569	8
10	3510	100.65115445272	9
10	3513	100.991501190955	10
10	3531	101.399967332569	9